Title

150 atoms
149 bonds
274 angles
536 dihedrals
36 impropers

7 atom types
9 bond types
7 angle types
22 dihedral types
2 improper types
-7.423299789 4.934599876 xlo xhi
-7.413599968 8.476599693 ylo yhi
-5.186200142 8.739100456 zlo zhi
0.0 0.0 0.0 xy xz yz

Masses

1	15.99943
2	12.01078
3	1.007947
4	1.007947
5	12.01078
6	15.99943
7	1.007947


Pair Coeffs

1	0.16846514	3.0251065
2	0.10884061	3.3795318
3	0.015779483	2.6445434
4	0.016409246	2.5832257
5	0.086879315	3.4806469
6	0.2102061	3.0398122
7	0.015611343	2.5725815

Bond Coeffs

1 harmonic	366.7408841747	1.425895053732
2 harmonic	301.15400723785	1.345741232799
3 harmonic	264.62148576755	1.52190126495
4 harmonic	370.04670688625	1.093899492634
5 harmonic	582.698766451	1.225198386222
6 harmonic	329.44145381095	1.523435958334
7 harmonic	289.73813263395	1.498646816465
8 harmonic	399.1592953295	1.371688562017
9 harmonic	397.2545789619	1.085358495916


Angle Coeffs

1 harmonic	53.20531626545	116.5475862634
2 harmonic	201.41175231035	127.4691416191
3 harmonic	57.8982893754	126.8062420451
4 harmonic	65.09061609600001	110.3538806181
5 harmonic	48.776492647595	115.6030999533
6 harmonic	34.066775159195	129.1835929926
7 harmonic	22.69631544292	130.7309534886


Dihedral Coeffs

1 fourier 1	0.1115525666802	3	0
2 fourier 1	0.3432490222662	1	0
3 fourier 1	0.1155372516788	3	0
4 fourier 1	0.02664938770063	3	0
5 fourier 1	1.163809172478	2	180
6 fourier 1	0.1679186987369	1	180
7 fourier 1	2.779853741805	2	180
8 fourier 1	0.09223874044423	3	0
9 fourier 1	0.3159935921949	2	180
10 fourier 1	0.3247796806857	1	180
11 fourier 1	0.1040663847541	3	0
12 fourier 1	0.1918272375143	3	0
13 fourier 1	0.9202179876409	1	180
14 fourier 1	0.1911926717192	3	0
15 fourier 1	0.0473758381877	3	0
16 fourier 1	0.4541676554336	1	0
17 fourier 1	0.1489710476446	2	0
18 fourier 1	0.02960027280666	3	180
19 fourier 1	-0.3703352413219	2	0
20 fourier 1	5.294842998052	2	180
21 fourier 1	0.2962286176719	3	180
22 fourier 1	0.007435022645929	1	0


Improper Coeffs

1 3.5	-1	2
2 0.3666666666666667	-1	2


Atoms

1	1	1	-0.51634324	1.1115	-0.98790002	1.9279
2	1	2	0.19676347	0.2922	-1.0775	0.8154
3	1	2	-0.16736707	-0.87809998	-0.082400002	0.95779997
4	1	3	0.095827989	-1.6239001	-0.3452	0.1987
5	1	3	0.095827989	-1.2963001	-0.34940001	1.9311
6	1	4	0.070272803	0.79299998	-0.87699997	-0.1406
7	1	5	0.79465854	2.4617	-0.8524	1.9957
8	1	6	-0.59071857	2.9559	-0.5492	3.0696001
9	1	2	-0.26498741	3.3896	-1.1138	0.84299999
10	1	3	0.089733496	4.0865002	-1.9306	1.1223
11	1	3	0.089733496	2.8696001	-1.4225	-0.079099998
12	1	3	0.089733496	3.9784999	-0.2001	0.62830001
13	1	2	-0.15765809	0.0097000003	1.9209	-0.49770001
14	1	2	-0.11820333	-0.74190003	1.4721	0.78149998
15	1	2	-0.16671534	-0.33039999	2.2184999	2.0594001
16	1	3	0.095827997	0.054900002	3.2277	1.7911
17	1	3	0.095827997	0.51749998	1.659	2.4958999
18	1	3	0.088218294	-1.7661999	1.8545001	0.59109998
19	1	2	0.14102829	1.5362	1.8545001	-0.51959997
20	1	1	-0.50849926	2.0634	2.6426001	0.47569999
21	1	5	0.79383928	3.3889	2.8369999	0.67379999
22	1	6	-0.5799647	4.2126999	2.3582001	-0.090499997
23	1	2	-0.26446554	3.8252001	3.6452999	1.8428
24	1	3	0.089733496	4.9345999	3.7140999	1.88
25	1	3	0.089733496	3.4630001	3.1610999	2.7763
26	1	3	0.089733496	3.3985	4.6647	1.7697999
27	1	4	0.072582074	1.8841	2.2318001	-1.5079
28	1	4	0.072582074	1.9217	0.83170003	-0.41729999
29	1	3	0.089687735	-0.38	1.3447	-1.3555
30	1	3	0.089687735	-0.25299999	2.9874001	-0.66469997
31	1	1	-0.51654398	-0.91140002	3.0216999	4.2231002
32	1	2	0.19263478	-1.5035	2.5469	3.0620999
33	1	2	-0.16671535	-2.5137	1.3944	3.3471
34	1	3	0.095828004	-2.7251	0.97970003	2.3787999
35	1	3	0.095828004	-2.0129001	0.64899999	3.9833
36	1	4	0.069771521	-2.0992	3.3499999	2.5869
37	1	5	0.79465842	-0.0458	2.3016	5.0079999
38	1	6	-0.59071857	0.1559	1.1097	4.8074999
39	1	2	-0.26498741	0.70490003	2.9630001	6.1083002
40	1	3	0.089733496	1.7931	2.8752	5.9022999
41	1	3	0.089733496	0.42910001	4.0339999	6.1764998
42	1	3	0.089733496	0.4797	2.4556	7.0679002
43	1	2	-0.15765809	-4.2287998	2.6004	4.9858999
44	1	2	-0.11820335	-3.9909999	1.592	3.8204999
45	1	2	-0.16671534	-4.6012001	0.1921	4.1641002
46	1	3	0.095827997	-5.572	0.33129999	4.6898999
47	1	3	0.095827997	-3.9586999	-0.22409999	4.9594998
48	1	3	0.088218316	-4.6141	1.9947	3.0043001
49	1	2	0.14102829	-3.3396001	2.5286	6.2308998
50	1	1	-0.50849926	-3.1329999	1.2395	6.6657
51	1	5	0.79383928	-2.2739	0.93809998	7.6718001
52	1	6	-0.5799647	-1.7661999	1.8209	8.3504
53	1	2	-0.26446554	-1.9021	-0.48629999	7.9133
54	1	3	0.089733496	-1.1622	-0.5607	8.7391005
55	1	3	0.089733496	-1.4484	-0.90499997	6.9896998
56	1	3	0.089733496	-2.8074999	-1.0685	8.1767998
57	1	4	0.072582074	-3.7776	3.1561999	7.0376
58	1	4	0.072582074	-2.369	2.9769001	5.9942999
59	1	3	0.089687735	-4.1269002	3.6357	4.5922999
60	1	3	0.089687735	-5.2908001	2.4995999	5.3021998
61	1	1	-0.51654398	-4.5767999	-2.1547	3.6612999
62	1	2	0.19263478	-4.9001002	-0.92809999	3.0706
63	1	2	-0.16671535	-4.3032999	-0.83329999	1.6123
64	1	3	0.095828004	-4.3772998	0.2181	1.3171999
65	1	3	0.095828004	-3.2563	-1.1461	1.6617
66	1	4	0.069771521	-5.9972	-0.87059999	2.898
67	1	5	0.79465842	-3.3081	-2.5050001	4.0718002
68	1	6	-0.59071857	-2.3554001	-1.7668999	3.8708999
69	1	2	-0.26498741	-3.0488	-3.8137	4.7463999
70	1	3	0.089733496	-1.9637001	-3.9140999	4.98
71	1	3	0.089733496	-3.3366001	-4.6508999	4.0812001
72	1	3	0.089733496	-3.622	-3.8698001	5.6922002
73	1	2	-0.15765809	-5.3860998	-3.0941999	0.82910001
74	1	2	-0.11820335	-4.9941001	-1.6395	0.43180001
75	1	2	-0.16671534	-4.1567001	-1.6521	-0.90219998
76	1	3	0.095827997	-4.5408001	-2.4981	-1.5153
77	1	3	0.095827997	-3.1300001	-1.9308	-0.63370001
78	1	3	0.088218316	-5.9766002	-1.1658	0.2104
79	1	2	0.14102829	-4.2958002	-4.0883999	1.2664
80	1	1	-0.50849926	-3.5411	-4.6542001	0.2568
81	1	5	0.79383928	-2.655	-5.6557999	0.5517
82	1	6	-0.5799647	-2.5086	-6.0358	1.7122
83	1	2	-0.26446554	-1.8688	-6.3388	-0.51190001
84	1	3	0.089733496	-0.7877	-6.2694998	-0.27700001
85	1	3	0.089733496	-2.1414001	-7.4136	-0.5334
86	1	3	0.089733496	-2.0704999	-5.8829999	-1.5027
87	1	4	0.072582074	-4.8355999	-4.9162002	1.7801
88	1	4	0.072582074	-3.6098001	-3.6177001	1.9664
89	1	3	0.089687735	-6.0783	-2.9916999	1.6917
90	1	3	0.089687735	-5.9865999	-3.5704999	0.022299999
91	1	1	-0.51654398	-3.4215	-0.77079999	-3.0411
92	1	2	0.19183959	-4.2061	-0.45230001	-1.9329
93	1	2	-0.15819842	-3.8794	0.9777	-1.4064
94	1	3	0.093673244	-4.5124998	1.1232001	-0.5223
95	1	3	0.093673244	-2.8224001	1.0416	-1.1210999
96	1	4	0.069771521	-5.2625999	-0.4012	-2.2732999
97	1	5	0.79465842	-2.0666001	-1.0035	-3.0513
98	1	6	-0.59071857	-1.4084001	-0.95539999	-2.0229001
99	1	2	-0.26498741	-1.3297	-1.2839	-4.3179998
100	1	3	0.089733496	-0.83179998	-2.2750001	-4.2448001
101	1	3	0.089733496	-2.0155001	-1.2709	-5.1862001
102	1	3	0.089733496	-0.542	-0.50980002	-4.4601002
103	1	2	-0.14935966	-3.5276	2.2381999	-3.7128999
104	1	2	-0.098878585	-4.2501998	2.1882	-2.3376
105	1	2	-0.14075106	-4.1234002	3.5517001	-1.5796
106	1	3	0.088690184	-4.2902999	4.3990998	-2.2792001
107	1	3	0.088690184	-3.092	3.6436999	-1.1746
108	1	3	0.08938165	-5.3223	2.0752001	-2.6073
109	1	2	0.14011218	-1.9928	2.3137	-3.7629001
110	1	1	-0.50849926	-1.4674	3.4775	-3.2377999
111	1	5	0.79383928	-0.1331	3.7565	-3.3220999
112	1	6	-0.5799647	0.61940002	3.0264001	-3.9518001
113	1	2	-0.26446554	0.4393	4.9570999	-2.6385
114	1	3	0.089733496	0.90679997	5.6272998	-3.3899
115	1	3	0.089733496	1.2201	4.6350002	-1.9165
116	1	3	0.089733496	-0.35139999	5.5086002	-2.0917001
117	1	4	0.072582074	-1.7103	2.2516999	-4.8379998
118	1	4	0.072582074	-1.5503	1.4529001	-3.2467
119	1	3	0.087727092	-3.8213	1.3286999	-4.2747002
120	1	3	0.087727092	-3.9291999	3.0998001	-4.2904
121	1	2	0.14703277	0.63770002	-3.5604	0.074699998
122	1	1	-0.50945735	1.2994	-4.4250002	0.9307
123	1	5	0.79383928	1.2822	-4.5381999	2.2804999
124	1	6	-0.5799647	0.93110001	-3.6204	3.0046999
125	1	2	-0.26446554	1.6792001	-5.8539	2.8694999
126	1	3	0.089733496	1.6196001	-5.8341999	3.9770999
127	1	3	0.089733496	0.98839998	-6.6384001	2.4891
128	1	3	0.089733496	2.7128999	-6.1093001	2.5573001
129	1	2	-0.14654085	-0.31029999	-2.5067999	0.6825
130	1	3	0.093068808	-0.88319999	-2.8611	1.5664999
131	1	3	0.093068808	-1.0738	-2.4172001	-0.1063
132	1	4	0.071713664	1.3412	-3.096	-0.64420003
133	1	4	0.071713664	0.0054000001	-4.2198	-0.55040002
134	1	5	-0.022551205	-5.1574001	3.6900001	-0.4637
135	1	2	-0.13747416	-4.7104998	3.7744	0.97589999
136	1	2	0.14298852	-4.1812	5.1511998	1.3922
137	1	1	-0.50476432	-5.2378998	6.0300002	1.5979
138	1	5	0.79399139	-5.4884	6.6687002	2.7793
139	1	6	-0.5799647	-4.6728001	6.6415	3.6951001
140	1	2	-0.26446554	-6.7719002	7.4057999	2.9899001
141	1	3	0.089733496	-6.5633998	8.4765997	3.1952
142	1	3	0.089733496	-7.3084002	6.9728999	3.8608999
143	1	3	0.089733496	-7.4232998	7.3262	2.0932
144	1	4	0.072440065	-3.6210999	5.0124002	2.3392
145	1	4	0.072440065	-3.4727001	5.5500998	0.63819999
146	1	3	0.086817555	-5.5401001	3.5171001	1.6705
147	1	3	0.086817555	-3.9184	3.0099001	1.095
148	1	5	-0.46314305	-6.4695001	3.6940999	-0.755
149	1	7	0.19875163	-6.8148999	3.6282001	-1.7819
150	1	7	0.19875163	-7.2186999	3.7786	0.0261

Bonds

1	1	1	2
2	2	1	7
3	3	2	3
4	4	2	6
5	3	2	129
6	4	3	4
7	4	3	5
8	3	3	14
9	5	7	8
10	6	7	9
11	4	9	10
12	4	9	11
13	4	9	12
14	3	13	14
15	3	13	19
16	4	13	29
17	4	13	30
18	3	14	15
19	4	14	18
20	4	15	16
21	4	15	17
22	3	15	32
23	1	19	20
24	4	19	27
25	4	19	28
26	2	20	21
27	5	21	22
28	6	21	23
29	4	23	24
30	4	23	25
31	4	23	26
32	1	31	32
33	2	31	37
34	3	32	33
35	4	32	36
36	4	33	34
37	4	33	35
38	3	33	44
39	5	37	38
40	6	37	39
41	4	39	40
42	4	39	41
43	4	39	42
44	3	43	44
45	3	43	49
46	4	43	59
47	4	43	60
48	3	44	45
49	4	44	48
50	4	45	46
51	4	45	47
52	3	45	62
53	1	49	50
54	4	49	57
55	4	49	58
56	2	50	51
57	5	51	52
58	6	51	53
59	4	53	54
60	4	53	55
61	4	53	56
62	1	61	62
63	2	61	67
64	3	62	63
65	4	62	66
66	4	63	64
67	4	63	65
68	3	63	74
69	5	67	68
70	6	67	69
71	4	69	70
72	4	69	71
73	4	69	72
74	3	73	74
75	3	73	79
76	4	73	89
77	4	73	90
78	3	74	75
79	4	74	78
80	4	75	76
81	4	75	77
82	3	75	92
83	1	79	80
84	4	79	87
85	4	79	88
86	2	80	81
87	5	81	82
88	6	81	83
89	4	83	84
90	4	83	85
91	4	83	86
92	1	91	92
93	2	91	97
94	3	92	93
95	4	92	96
96	4	93	94
97	4	93	95
98	3	93	104
99	5	97	98
100	6	97	99
101	4	99	100
102	4	99	101
103	4	99	102
104	3	103	104
105	3	103	109
106	4	103	119
107	4	103	120
108	3	104	105
109	4	104	108
110	4	105	106
111	4	105	107
112	7	105	134
113	1	109	110
114	4	109	117
115	4	109	118
116	2	110	111
117	5	111	112
118	6	111	113
119	4	113	114
120	4	113	115
121	4	113	116
122	1	121	122
123	3	121	129
124	4	121	132
125	4	121	133
126	2	122	123
127	5	123	124
128	6	123	125
129	4	125	126
130	4	125	127
131	4	125	128
132	4	129	130
133	4	129	131
134	7	134	135
135	8	134	148
136	3	135	136
137	4	135	146
138	4	135	147
139	1	136	137
140	4	136	144
141	4	136	145
142	2	137	138
143	5	138	139
144	6	138	140
145	4	140	141
146	4	140	142
147	4	140	143
148	9	148	149
149	9	148	150

Angles

1	1	1	2	3
2	1	1	2	6
3	1	1	2	129
4	2	1	7	8
5	3	1	7	9
6	4	2	1	7
7	1	2	3	4
8	1	2	3	5
9	1	2	3	14
10	1	2	129	121
11	1	2	129	130
12	1	2	129	131
13	1	3	2	6
14	1	3	2	129
15	1	3	14	13
16	1	3	14	15
17	1	3	14	18
18	5	4	3	5
19	1	4	3	14
20	1	5	3	14
21	1	6	2	129
22	1	7	9	10
23	1	7	9	11
24	1	7	9	12
25	3	8	7	9
26	5	10	9	11
27	5	10	9	12
28	5	11	9	12
29	1	13	14	15
30	1	13	14	18
31	1	13	19	20
32	1	13	19	27
33	1	13	19	28
34	1	14	13	19
35	1	14	13	29
36	1	14	13	30
37	1	14	15	16
38	1	14	15	17
39	1	14	15	32
40	1	15	14	18
41	1	15	32	31
42	1	15	32	33
43	1	15	32	36
44	5	16	15	17
45	1	16	15	32
46	1	17	15	32
47	1	19	13	29
48	1	19	13	30
49	4	19	20	21
50	1	20	19	27
51	1	20	19	28
52	2	20	21	22
53	3	20	21	23
54	1	21	23	24
55	1	21	23	25
56	1	21	23	26
57	3	22	21	23
58	5	24	23	25
59	5	24	23	26
60	5	25	23	26
61	5	27	19	28
62	5	29	13	30
63	1	31	32	33
64	1	31	32	36
65	2	31	37	38
66	3	31	37	39
67	4	32	31	37
68	1	32	33	34
69	1	32	33	35
70	1	32	33	44
71	1	33	32	36
72	1	33	44	43
73	1	33	44	45
74	1	33	44	48
75	5	34	33	35
76	1	34	33	44
77	1	35	33	44
78	1	37	39	40
79	1	37	39	41
80	1	37	39	42
81	3	38	37	39
82	5	40	39	41
83	5	40	39	42
84	5	41	39	42
85	1	43	44	45
86	1	43	44	48
87	1	43	49	50
88	1	43	49	57
89	1	43	49	58
90	1	44	43	49
91	1	44	43	59
92	1	44	43	60
93	1	44	45	46
94	1	44	45	47
95	1	44	45	62
96	1	45	44	48
97	1	45	62	61
98	1	45	62	63
99	1	45	62	66
100	5	46	45	47
101	1	46	45	62
102	1	47	45	62
103	1	49	43	59
104	1	49	43	60
105	4	49	50	51
106	1	50	49	57
107	1	50	49	58
108	2	50	51	52
109	3	50	51	53
110	1	51	53	54
111	1	51	53	55
112	1	51	53	56
113	3	52	51	53
114	5	54	53	55
115	5	54	53	56
116	5	55	53	56
117	5	57	49	58
118	5	59	43	60
119	1	61	62	63
120	1	61	62	66
121	2	61	67	68
122	3	61	67	69
123	4	62	61	67
124	1	62	63	64
125	1	62	63	65
126	1	62	63	74
127	1	63	62	66
128	1	63	74	73
129	1	63	74	75
130	1	63	74	78
131	5	64	63	65
132	1	64	63	74
133	1	65	63	74
134	1	67	69	70
135	1	67	69	71
136	1	67	69	72
137	3	68	67	69
138	5	70	69	71
139	5	70	69	72
140	5	71	69	72
141	1	73	74	75
142	1	73	74	78
143	1	73	79	80
144	1	73	79	87
145	1	73	79	88
146	1	74	73	79
147	1	74	73	89
148	1	74	73	90
149	1	74	75	76
150	1	74	75	77
151	1	74	75	92
152	1	75	74	78
153	1	75	92	91
154	1	75	92	93
155	1	75	92	96
156	5	76	75	77
157	1	76	75	92
158	1	77	75	92
159	1	79	73	89
160	1	79	73	90
161	4	79	80	81
162	1	80	79	87
163	1	80	79	88
164	2	80	81	82
165	3	80	81	83
166	1	81	83	84
167	1	81	83	85
168	1	81	83	86
169	3	82	81	83
170	5	84	83	85
171	5	84	83	86
172	5	85	83	86
173	5	87	79	88
174	5	89	73	90
175	1	91	92	93
176	1	91	92	96
177	2	91	97	98
178	3	91	97	99
179	4	92	91	97
180	1	92	93	94
181	1	92	93	95
182	1	92	93	104
183	1	93	92	96
184	1	93	104	103
185	1	93	104	105
186	1	93	104	108
187	5	94	93	95
188	1	94	93	104
189	1	95	93	104
190	1	97	99	100
191	1	97	99	101
192	1	97	99	102
193	3	98	97	99
194	5	100	99	101
195	5	100	99	102
196	5	101	99	102
197	1	103	104	105
198	1	103	104	108
199	1	103	109	110
200	1	103	109	117
201	1	103	109	118
202	1	104	103	109
203	1	104	103	119
204	1	104	103	120
205	1	104	105	106
206	1	104	105	107
207	1	104	105	134
208	1	105	104	108
209	3	105	134	135
210	3	105	134	148
211	5	106	105	107
212	1	106	105	134
213	1	107	105	134
214	1	109	103	119
215	1	109	103	120
216	4	109	110	111
217	1	110	109	117
218	1	110	109	118
219	2	110	111	112
220	3	110	111	113
221	1	111	113	114
222	1	111	113	115
223	1	111	113	116
224	3	112	111	113
225	5	114	113	115
226	5	114	113	116
227	5	115	113	116
228	5	117	109	118
229	5	119	103	120
230	4	121	122	123
231	1	121	129	130
232	1	121	129	131
233	1	122	121	129
234	1	122	121	132
235	1	122	121	133
236	2	122	123	124
237	3	122	123	125
238	1	123	125	126
239	1	123	125	127
240	1	123	125	128
241	3	124	123	125
242	5	126	125	127
243	5	126	125	128
244	5	127	125	128
245	1	129	121	132
246	1	129	121	133
247	5	130	129	131
248	5	132	121	133
249	1	134	135	136
250	1	134	135	146
251	1	134	135	147
252	6	134	148	149
253	6	134	148	150
254	3	135	134	148
255	1	135	136	137
256	1	135	136	144
257	1	135	136	145
258	1	136	135	146
259	1	136	135	147
260	4	136	137	138
261	1	137	136	144
262	1	137	136	145
263	2	137	138	139
264	3	137	138	140
265	1	138	140	141
266	1	138	140	142
267	1	138	140	143
268	3	139	138	140
269	5	141	140	142
270	5	141	140	143
271	5	142	140	143
272	5	144	136	145
273	5	146	135	147
274	7	149	148	150

Dihedrals

1	1	1	2	3	4
2	2	1	2	3	4
3	1	1	2	3	5
4	2	1	2	3	5
5	3	1	2	3	14
6	3	1	2	129	121
7	1	1	2	129	130
8	2	1	2	129	130
9	1	1	2	129	131
10	2	1	2	129	131
11	4	1	7	9	10
12	4	1	7	9	11
13	4	1	7	9	12
14	5	2	1	7	8
15	6	2	1	7	8
16	7	2	1	7	9
17	8	2	3	14	13
18	9	2	3	14	13
19	10	2	3	14	13
20	8	2	3	14	15
21	9	2	3	14	15
22	10	2	3	14	15
23	11	2	3	14	18
24	3	2	129	121	122
25	11	2	129	121	132
26	11	2	129	121	133
27	12	3	2	1	7
28	13	3	2	1	7
29	8	3	2	129	121
30	9	3	2	129	121
31	10	3	2	129	121
32	11	3	2	129	130
33	11	3	2	129	131
34	8	3	14	13	19
35	9	3	14	13	19
36	10	3	14	13	19
37	11	3	14	13	29
38	11	3	14	13	30
39	11	3	14	15	16
40	11	3	14	15	17
41	8	3	14	15	32
42	9	3	14	15	32
43	10	3	14	15	32
44	14	4	3	2	6
45	11	4	3	2	129
46	11	4	3	14	13
47	11	4	3	14	15
48	14	4	3	14	18
49	14	5	3	2	6
50	11	5	3	2	129
51	11	5	3	14	13
52	11	5	3	14	15
53	14	5	3	14	18
54	15	6	2	1	7
55	11	6	2	3	14
56	11	6	2	129	121
57	14	6	2	129	130
58	14	6	2	129	131
59	12	7	1	2	129
60	13	7	1	2	129
61	16	8	7	9	10
62	17	8	7	9	10
63	18	8	7	9	10
64	16	8	7	9	11
65	17	8	7	9	11
66	18	8	7	9	11
67	16	8	7	9	12
68	17	8	7	9	12
69	18	8	7	9	12
70	11	13	14	15	16
71	11	13	14	15	17
72	8	13	14	15	32
73	9	13	14	15	32
74	10	13	14	15	32
75	12	13	19	20	21
76	13	13	19	20	21
77	8	14	3	2	129
78	9	14	3	2	129
79	10	14	3	2	129
80	3	14	13	19	20
81	11	14	13	19	27
82	11	14	13	19	28
83	3	14	15	32	31
84	8	14	15	32	33
85	9	14	15	32	33
86	10	14	15	32	33
87	11	14	15	32	36
88	8	15	14	13	19
89	9	15	14	13	19
90	10	15	14	13	19
91	11	15	14	13	29
92	11	15	14	13	30
93	12	15	32	31	37
94	13	15	32	31	37
95	11	15	32	33	34
96	11	15	32	33	35
97	8	15	32	33	44
98	9	15	32	33	44
99	10	15	32	33	44
100	14	16	15	14	18
101	1	16	15	32	31
102	2	16	15	32	31
103	11	16	15	32	33
104	14	16	15	32	36
105	14	17	15	14	18
106	1	17	15	32	31
107	2	17	15	32	31
108	11	17	15	32	33
109	14	17	15	32	36
110	11	18	14	13	19
111	14	18	14	13	29
112	14	18	14	13	30
113	11	18	14	15	32
114	5	19	20	21	22
115	6	19	20	21	22
116	7	19	20	21	23
117	1	20	19	13	29
118	2	20	19	13	29
119	1	20	19	13	30
120	2	20	19	13	30
121	4	20	21	23	24
122	4	20	21	23	25
123	4	20	21	23	26
124	15	21	20	19	27
125	15	21	20	19	28
126	16	22	21	23	24
127	17	22	21	23	24
128	18	22	21	23	24
129	16	22	21	23	25
130	17	22	21	23	25
131	18	22	21	23	25
132	16	22	21	23	26
133	17	22	21	23	26
134	18	22	21	23	26
135	14	27	19	13	29
136	14	27	19	13	30
137	14	28	19	13	29
138	14	28	19	13	30
139	1	31	32	33	34
140	2	31	32	33	34
141	1	31	32	33	35
142	2	31	32	33	35
143	3	31	32	33	44
144	4	31	37	39	40
145	4	31	37	39	41
146	4	31	37	39	42
147	5	32	31	37	38
148	6	32	31	37	38
149	7	32	31	37	39
150	8	32	33	44	43
151	9	32	33	44	43
152	10	32	33	44	43
153	8	32	33	44	45
154	9	32	33	44	45
155	10	32	33	44	45
156	11	32	33	44	48
157	12	33	32	31	37
158	13	33	32	31	37
159	8	33	44	43	49
160	9	33	44	43	49
161	10	33	44	43	49
162	11	33	44	43	59
163	11	33	44	43	60
164	11	33	44	45	46
165	11	33	44	45	47
166	8	33	44	45	62
167	9	33	44	45	62
168	10	33	44	45	62
169	14	34	33	32	36
170	11	34	33	44	43
171	11	34	33	44	45
172	14	34	33	44	48
173	14	35	33	32	36
174	11	35	33	44	43
175	11	35	33	44	45
176	14	35	33	44	48
177	15	36	32	31	37
178	11	36	32	33	44
179	16	38	37	39	40
180	17	38	37	39	40
181	18	38	37	39	40
182	16	38	37	39	41
183	17	38	37	39	41
184	18	38	37	39	41
185	16	38	37	39	42
186	17	38	37	39	42
187	18	38	37	39	42
188	11	43	44	45	46
189	11	43	44	45	47
190	8	43	44	45	62
191	9	43	44	45	62
192	10	43	44	45	62
193	12	43	49	50	51
194	13	43	49	50	51
195	3	44	43	49	50
196	11	44	43	49	57
197	11	44	43	49	58
198	3	44	45	62	61
199	8	44	45	62	63
200	9	44	45	62	63
201	10	44	45	62	63
202	11	44	45	62	66
203	8	45	44	43	49
204	9	45	44	43	49
205	10	45	44	43	49
206	11	45	44	43	59
207	11	45	44	43	60
208	12	45	62	61	67
209	13	45	62	61	67
210	11	45	62	63	64
211	11	45	62	63	65
212	8	45	62	63	74
213	9	45	62	63	74
214	10	45	62	63	74
215	14	46	45	44	48
216	1	46	45	62	61
217	2	46	45	62	61
218	11	46	45	62	63
219	14	46	45	62	66
220	14	47	45	44	48
221	1	47	45	62	61
222	2	47	45	62	61
223	11	47	45	62	63
224	14	47	45	62	66
225	11	48	44	43	49
226	14	48	44	43	59
227	14	48	44	43	60
228	11	48	44	45	62
229	5	49	50	51	52
230	6	49	50	51	52
231	7	49	50	51	53
232	1	50	49	43	59
233	2	50	49	43	59
234	1	50	49	43	60
235	2	50	49	43	60
236	4	50	51	53	54
237	4	50	51	53	55
238	4	50	51	53	56
239	15	51	50	49	57
240	15	51	50	49	58
241	16	52	51	53	54
242	17	52	51	53	54
243	18	52	51	53	54
244	16	52	51	53	55
245	17	52	51	53	55
246	18	52	51	53	55
247	16	52	51	53	56
248	17	52	51	53	56
249	18	52	51	53	56
250	14	57	49	43	59
251	14	57	49	43	60
252	14	58	49	43	59
253	14	58	49	43	60
254	1	61	62	63	64
255	2	61	62	63	64
256	1	61	62	63	65
257	2	61	62	63	65
258	3	61	62	63	74
259	4	61	67	69	70
260	4	61	67	69	71
261	4	61	67	69	72
262	5	62	61	67	68
263	6	62	61	67	68
264	7	62	61	67	69
265	8	62	63	74	73
266	9	62	63	74	73
267	10	62	63	74	73
268	8	62	63	74	75
269	9	62	63	74	75
270	10	62	63	74	75
271	11	62	63	74	78
272	12	63	62	61	67
273	13	63	62	61	67
274	8	63	74	73	79
275	9	63	74	73	79
276	10	63	74	73	79
277	11	63	74	73	89
278	11	63	74	73	90
279	11	63	74	75	76
280	11	63	74	75	77
281	8	63	74	75	92
282	9	63	74	75	92
283	10	63	74	75	92
284	14	64	63	62	66
285	11	64	63	74	73
286	11	64	63	74	75
287	14	64	63	74	78
288	14	65	63	62	66
289	11	65	63	74	73
290	11	65	63	74	75
291	14	65	63	74	78
292	15	66	62	61	67
293	11	66	62	63	74
294	16	68	67	69	70
295	17	68	67	69	70
296	18	68	67	69	70
297	16	68	67	69	71
298	17	68	67	69	71
299	18	68	67	69	71
300	16	68	67	69	72
301	17	68	67	69	72
302	18	68	67	69	72
303	11	73	74	75	76
304	11	73	74	75	77
305	8	73	74	75	92
306	9	73	74	75	92
307	10	73	74	75	92
308	12	73	79	80	81
309	13	73	79	80	81
310	3	74	73	79	80
311	11	74	73	79	87
312	11	74	73	79	88
313	3	74	75	92	91
314	8	74	75	92	93
315	9	74	75	92	93
316	10	74	75	92	93
317	11	74	75	92	96
318	8	75	74	73	79
319	9	75	74	73	79
320	10	75	74	73	79
321	11	75	74	73	89
322	11	75	74	73	90
323	12	75	92	91	97
324	13	75	92	91	97
325	11	75	92	93	94
326	11	75	92	93	95
327	8	75	92	93	104
328	9	75	92	93	104
329	10	75	92	93	104
330	14	76	75	74	78
331	1	76	75	92	91
332	2	76	75	92	91
333	11	76	75	92	93
334	14	76	75	92	96
335	14	77	75	74	78
336	1	77	75	92	91
337	2	77	75	92	91
338	11	77	75	92	93
339	14	77	75	92	96
340	11	78	74	73	79
341	14	78	74	73	89
342	14	78	74	73	90
343	11	78	74	75	92
344	5	79	80	81	82
345	6	79	80	81	82
346	7	79	80	81	83
347	1	80	79	73	89
348	2	80	79	73	89
349	1	80	79	73	90
350	2	80	79	73	90
351	4	80	81	83	84
352	4	80	81	83	85
353	4	80	81	83	86
354	15	81	80	79	87
355	15	81	80	79	88
356	16	82	81	83	84
357	17	82	81	83	84
358	18	82	81	83	84
359	16	82	81	83	85
360	17	82	81	83	85
361	18	82	81	83	85
362	16	82	81	83	86
363	17	82	81	83	86
364	18	82	81	83	86
365	14	87	79	73	89
366	14	87	79	73	90
367	14	88	79	73	89
368	14	88	79	73	90
369	1	91	92	93	94
370	2	91	92	93	94
371	1	91	92	93	95
372	2	91	92	93	95
373	3	91	92	93	104
374	4	91	97	99	100
375	4	91	97	99	101
376	4	91	97	99	102
377	5	92	91	97	98
378	6	92	91	97	98
379	7	92	91	97	99
380	8	92	93	104	103
381	9	92	93	104	103
382	10	92	93	104	103
383	8	92	93	104	105
384	9	92	93	104	105
385	10	92	93	104	105
386	11	92	93	104	108
387	12	93	92	91	97
388	13	93	92	91	97
389	8	93	104	103	109
390	9	93	104	103	109
391	10	93	104	103	109
392	11	93	104	103	119
393	11	93	104	103	120
394	11	93	104	105	106
395	11	93	104	105	107
396	3	93	104	105	134
397	14	94	93	92	96
398	11	94	93	104	103
399	11	94	93	104	105
400	14	94	93	104	108
401	14	95	93	92	96
402	11	95	93	104	103
403	11	95	93	104	105
404	14	95	93	104	108
405	15	96	92	91	97
406	11	96	92	93	104
407	16	98	97	99	100
408	17	98	97	99	100
409	18	98	97	99	100
410	16	98	97	99	101
411	17	98	97	99	101
412	18	98	97	99	101
413	16	98	97	99	102
414	17	98	97	99	102
415	18	98	97	99	102
416	11	103	104	105	106
417	11	103	104	105	107
418	3	103	104	105	134
419	12	103	109	110	111
420	13	103	109	110	111
421	3	104	103	109	110
422	11	104	103	109	117
423	11	104	103	109	118
424	4	104	105	134	135
425	19	104	105	134	148
426	8	105	104	103	109
427	9	105	104	103	109
428	10	105	104	103	109
429	11	105	104	103	119
430	11	105	104	103	120
431	4	105	134	135	136
432	4	105	134	135	146
433	4	105	134	135	147
434	20	105	134	148	149
435	20	105	134	148	150
436	14	106	105	104	108
437	4	106	105	134	135
438	21	106	105	134	148
439	22	106	105	134	148
440	14	107	105	104	108
441	4	107	105	134	135
442	21	107	105	134	148
443	22	107	105	134	148
444	11	108	104	103	109
445	14	108	104	103	119
446	14	108	104	103	120
447	3	108	104	105	134
448	5	109	110	111	112
449	6	109	110	111	112
450	7	109	110	111	113
451	1	110	109	103	119
452	2	110	109	103	119
453	1	110	109	103	120
454	2	110	109	103	120
455	4	110	111	113	114
456	4	110	111	113	115
457	4	110	111	113	116
458	15	111	110	109	117
459	15	111	110	109	118
460	16	112	111	113	114
461	17	112	111	113	114
462	18	112	111	113	114
463	16	112	111	113	115
464	17	112	111	113	115
465	18	112	111	113	115
466	16	112	111	113	116
467	17	112	111	113	116
468	18	112	111	113	116
469	14	117	109	103	119
470	14	117	109	103	120
471	14	118	109	103	119
472	14	118	109	103	120
473	5	121	122	123	124
474	6	121	122	123	124
475	7	121	122	123	125
476	1	122	121	129	130
477	2	122	121	129	130
478	1	122	121	129	131
479	2	122	121	129	131
480	4	122	123	125	126
481	4	122	123	125	127
482	4	122	123	125	128
483	12	123	122	121	129
484	13	123	122	121	129
485	15	123	122	121	132
486	15	123	122	121	133
487	16	124	123	125	126
488	17	124	123	125	126
489	18	124	123	125	126
490	16	124	123	125	127
491	17	124	123	125	127
492	18	124	123	125	127
493	16	124	123	125	128
494	17	124	123	125	128
495	18	124	123	125	128
496	14	130	129	121	132
497	14	130	129	121	133
498	14	131	129	121	132
499	14	131	129	121	133
500	3	134	135	136	137
501	3	134	135	136	144
502	3	134	135	136	145
503	20	135	134	148	149
504	20	135	134	148	150
505	12	135	136	137	138
506	13	135	136	137	138
507	19	136	135	134	148
508	5	136	137	138	139
509	6	136	137	138	139
510	7	136	137	138	140
511	1	137	136	135	146
512	2	137	136	135	146
513	1	137	136	135	147
514	2	137	136	135	147
515	4	137	138	140	141
516	4	137	138	140	142
517	4	137	138	140	143
518	15	138	137	136	144
519	15	138	137	136	145
520	16	139	138	140	141
521	17	139	138	140	141
522	18	139	138	140	141
523	16	139	138	140	142
524	17	139	138	140	142
525	18	139	138	140	142
526	16	139	138	140	143
527	17	139	138	140	143
528	18	139	138	140	143
529	14	144	136	135	146
530	14	144	136	135	147
531	14	145	136	135	146
532	14	145	136	135	147
533	21	146	135	134	148
534	22	146	135	134	148
535	21	147	135	134	148
536	22	147	135	134	148

Impropers

1	1	1	7	8	9
2	1	8	7	9	1
3	1	9	7	1	8
4	1	20	21	22	23
5	1	22	21	23	20
6	1	23	21	20	22
7	1	31	37	38	39
8	1	38	37	39	31
9	1	39	37	31	38
10	1	50	51	52	53
11	1	52	51	53	50
12	1	53	51	50	52
13	1	61	67	68	69
14	1	68	67	69	61
15	1	69	67	61	68
16	1	80	81	82	83
17	1	82	81	83	80
18	1	83	81	80	82
19	1	91	97	98	99
20	1	98	97	99	91
21	1	99	97	91	98
22	2	105	134	135	148
23	2	135	134	148	105
24	2	148	134	105	135
25	1	110	111	112	113
26	1	112	111	113	110
27	1	113	111	110	112
28	1	122	123	124	125
29	1	124	123	125	122
30	1	125	123	122	124
31	2	134	148	149	150
32	2	149	148	150	134
33	2	150	148	134	149
34	1	137	138	139	140
35	1	139	138	140	137
36	1	140	138	137	139
